45
charge: 0; multiplicity: 1; energy: -1060.04117000; smiles: CN(C)CCC[C@@]1(c2ccc(F)cc2)OCc2cc(C#N)ccc21; generated_by: Rowan; timestamp: 2026-01-16 21:16:46;
C    18.72514871  46.64451457  21.99880900
C    19.76904501  47.00976468  20.95940018
C    20.54435214  48.04668034  21.44231708
C    20.10396755  48.37175152  22.83477481
O    18.87977496  47.65917717  23.00433510
C    21.53392753  48.62056108  20.67636732
C    21.72694098  48.13580081  19.38263928
C    20.94849756  47.08677833  18.88930160
C    19.96036875  46.52237885  19.68154243
C    17.31662543  46.74811623  21.39956534
C    16.64380359  45.62933626  20.91344693
C    15.36759708  45.73278089  20.37502612
C    14.76854097  46.97395419  20.33642189
C    15.40274664  48.10566940  20.80754995
C    16.67641873  47.98148311  21.34131821
F    13.52609214  47.08592582  19.82899202
C    22.74896692  48.73187881  18.55770544
N    23.56811473  49.20861335  17.90746074
C    18.89161195  45.28627450  22.68939222
C    19.96656022  45.13167951  23.76893493
C    21.32471946  44.63612269  23.27679562
C    23.23361736  45.29897025  21.98802396
N    22.27451607  45.70447992  23.00019096
C    22.95310079  46.13093166  24.21031841
H    20.84817113  48.03686857  23.55960983
H    19.90456775  49.43110438  22.98696496
H    22.15409517  49.42456696  21.04759242
H    21.12026421  46.72136840  17.88825467
H    19.33790633  45.72801822  19.29583326
H    17.09956077  44.65100156  20.96911006
H    14.83338556  44.87479425  19.99361427
H    14.89676772  49.05835103  20.75632205
H    17.17751465  48.84658890  21.74446420
H    17.93320944  45.10185000  23.16911252
H    19.02576353  44.51773126  21.92731736
H    20.07228492  46.06005432  24.32302335
H    19.58824208  44.39147665  24.47310652
H    21.76354382  43.93353910  23.99811032
H    21.16714698  44.05989716  22.36432444
H    23.79304008  44.39466607  22.26972762
H    22.69508112  45.10037970  21.06508833
H    23.93961835  46.10717122  21.80233837
H    22.22194147  46.33998839  24.98956925
H    23.63914861  45.36388109  24.59500496
H    23.53104937  47.03573789  24.02424637
